Title: mrt sim-spice
Date: Fri Oct 20 06:46:18  2017
Plotname: Operating Point
Flags: real
No. Variables: 5
No. Points: 1       
Variables:
	0	v(1)	voltage
	1	v(4)	voltage
	2	v(9)	voltage
	3	v(14)	voltage
	4	i(v1)	current
Values:
0		1.000000000000000e+01
	4.999997500001250e-06
	4.999997500001250e-06
	9.980039920159680e+00
	-1.996009984031133e-02
